LAMMPS data generated by hand from test_data.json[0]. E_ref = -177.837796

38 atoms
2 atom types

-2.5000000000000000e+01 2.5000000000000000e+01 xlo xhi
-2.5000000000000000e+01 2.5000000000000000e+01 ylo yhi
-2.5000000000000000e+01 2.5000000000000000e+01 zlo zhi

Masses

1 58.6934
2 195.084

Atoms # atomic

1  2      -0.014480168    0.034207338    3.241557994
2  2       2.898730059   -1.086507438   -0.962365452
3  2       0.628479665   -3.011745934    1.021810156
4  2      -1.106421727   -0.938238334    0.966816473
5  2       0.014835984   -0.034293064   -3.241593337
6  2      -2.898807639    1.086543157    0.962013396
7  2       2.255579722    1.959448215    1.257961041
8  2       1.106258420    0.938154989   -0.966654169
9  2      -2.255797799   -1.959412496   -1.257693960
10 2      -0.628657260    3.011781654   -1.021547837
11 1       0.767345025    2.434319406    3.240815029
12 1       2.475190116    0.450660540    3.269695405
13 1      -2.009516874    3.447447164    1.046177973
14 1       2.532281722    0.438034901   -3.001865743
15 1       1.919678668    3.337595532   -0.888152317
16 1      -0.517924547   -3.819384392   -1.107891301
17 1      -2.532018776   -0.437782484    3.001675615
18 1      -0.767560720   -2.434388464   -3.240562236
19 1       3.598752923    1.386808095   -0.859907748
20 1      -0.316088158    1.496576382    1.090824918
21 1      -1.417059597    0.517022537   -1.120043062
22 1      -3.599178173   -1.386248490    0.859555692
23 1       0.315977240   -1.496704972   -1.090769772
24 1      -1.920058673   -3.337345495    0.888781356
25 1       3.094370313   -2.482866917    1.131306975
26 1      -1.728785719    1.914244046    3.071128536
27 1       0.517535017    3.819351054    1.108353649
28 1       0.853016963    2.388617546   -3.029957909
29 1      -1.591861116    1.942593392   -3.126812420
30 1      -0.852344434   -2.388415136    3.030427401
31 1       1.728486678   -1.914770313   -3.071016239
32 1      -2.474567594   -0.450996303   -3.269947446
33 1       3.837632775   -0.038407946    1.164302232
34 1      -3.837646061    0.038586544   -1.164925756
35 1       1.417151088   -0.517048731    1.119902941
36 1       2.009265459   -3.447535272   -1.045977568
37 1      -3.094345497    2.482700226   -1.132075758
38 1       1.592552695   -1.942600536    3.126653249
