ITEM: TIMESTEP
0
ITEM: NUMBER OF ATOMS
38
ITEM: BOX BOUNDS ff ff ff
-2.5000000000000000e+01 2.5000000000000000e+01
-2.5000000000000000e+01 2.5000000000000000e+01
-2.5000000000000000e+01 2.5000000000000000e+01
ITEM: ATOMS id type fx fy fz
1 2 0.0579686 0.0452305 -0.225015
2 2 -0.213152 0.0136712 0.100492
3 2 0.0213968 0.211469 -0.105028
4 2 -0.0416067 -0.0363085 0.0359508
5 2 -0.0552864 -0.0439493 0.225239
6 2 0.213103 -0.0113995 -0.10237
7 2 -0.178146 -0.15453 -0.0219197
8 2 0.045465 0.0383943 -0.0397601
9 2 0.17924 0.153839 0.0197565
10 2 -0.0198481 -0.212252 0.10318
11 1 0.0112434 -0.147016 -0.129657
12 1 -0.14342 0.0307139 -0.132517
13 1 0.0540436 -0.162598 -0.0958512
14 1 -0.166817 -0.0615255 0.182646
15 1 -0.136836 -0.196104 0.0825404
16 1 0.0137366 0.203062 0.0763812
17 1 0.163746 0.0595461 -0.179708
18 1 -0.0107729 0.147484 0.129817
19 1 -0.215107 -0.105213 0.0814644
20 1 0.0124161 -0.0590011 -0.042931
21 1 0.0559318 -0.0215851 0.045457
22 1 0.215222 0.10305 -0.0793866
23 1 -0.0130986 0.0596816 0.0441525
24 1 0.137136 0.194984 -0.0835103
25 1 -0.151998 0.0764816 -0.0979408
26 1 0.0836697 -0.120308 -0.161365
27 1 -0.0139361 -0.203491 -0.0762998
28 1 -0.0873153 -0.151839 0.182458
29 1 0.106842 -0.0971879 0.164671
30 1 0.0844694 0.150716 -0.182711
31 1 -0.0821327 0.122024 0.160264
32 1 0.140779 -0.0303739 0.133439
33 1 -0.203169 0.0159118 -0.0803397
34 1 0.203486 -0.0155489 0.0809175
35 1 -0.0575981 0.019817 -0.044209
36 1 -0.0540466 0.163262 0.0956567
37 1 0.151662 -0.0769335 0.100713
38 1 -0.107271 0.097828 -0.164676
