ITEM: TIMESTEP
0
ITEM: NUMBER OF ATOMS
38
ITEM: BOX BOUNDS ff ff ff
-2.5000000000000000e+01 2.5000000000000000e+01
-2.5000000000000000e+01 2.5000000000000000e+01
-2.5000000000000000e+01 2.5000000000000000e+01
ITEM: ATOMS id type fx fy fz 
1 2 0.0322509 0.0235132 -0.203887 
2 2 -0.188816 0.0357142 0.0783524 
3 2 -0.00444492 0.190977 -0.0833588 
4 2 -0.034898 -0.030614 0.0300931 
5 2 -0.0296111 -0.0224138 0.204202 
6 2 0.18865 -0.0335581 -0.0802858 
7 2 -0.153707 -0.133353 -0.0447693 
8 2 0.0387167 0.032688 -0.0338543 
9 2 0.154817 0.132859 0.0425256 
10 2 0.00609334 -0.19166 0.0815464 
11 1 0.00631365 -0.152958 -0.14107 
12 1 -0.14984 0.0262952 -0.144195 
13 1 0.0625199 -0.173425 -0.0966655 
14 1 -0.160185 -0.0557944 0.176898 
15 1 -0.130088 -0.190523 0.076576 
16 1 -0.00844324 0.162958 0.0859247 
17 1 0.157058 0.0537675 -0.173913 
18 1 -0.00580591 0.153406 0.141215 
19 1 -0.208504 -0.0995007 0.0754879 
20 1 0.0158795 -0.0753365 -0.0548415 
21 1 0.0714184 -0.0271985 0.0577328 
22 1 0.208732 0.0971985 -0.0733057 
23 1 -0.016546 0.0760374 0.056074 
24 1 0.130464 0.18941 -0.0776419 
25 1 -0.161451 0.0867362 -0.0988349 
26 1 0.0540125 -0.124206 -0.125645 
27 1 0.00841629 -0.163085 -0.0859372 
28 1 -0.0804814 -0.146213 0.176665 
29 1 0.115925 -0.068593 0.12803 
30 1 0.0774644 0.14505 -0.177035 
31 1 -0.0524486 0.126004 0.124538 
32 1 0.147142 -0.0259046 0.145031 
33 1 -0.15955 0.0319446 -0.0897414 
34 1 0.159823 -0.0317067 0.0903469 
35 1 -0.0731019 0.0255119 -0.0564225 
36 1 -0.0625236 0.174092 0.0964335 
37 1 0.161204 -0.0871621 0.101666 
38 1 -0.116457 0.0690439 -0.127937 
