ITEM: TIMESTEP
0
ITEM: NUMBER OF ATOMS
38
ITEM: BOX BOUNDS ff ff ff
-2.5000000000000000e+01 2.5000000000000000e+01
-2.5000000000000000e+01 2.5000000000000000e+01
-2.5000000000000000e+01 2.5000000000000000e+01
ITEM: ATOMS id type fx fy fz 
1 2 0.0579682 0.0452302 -0.225014 
2 2 -0.213151 0.0136714 0.100492 
3 2 0.0213965 0.211468 -0.105028 
4 2 -0.0416075 -0.0363093 0.0359516 
5 2 -0.055286 -0.0439491 0.225238 
6 2 0.213103 -0.0113998 -0.10237 
7 2 -0.178145 -0.15453 -0.0219199 
8 2 0.045466 0.0383951 -0.039761 
9 2 0.17924 0.153838 0.0197567 
10 2 -0.0198478 -0.212251 0.10318 
11 1 0.0112434 -0.147017 -0.129657 
12 1 -0.14342 0.0307142 -0.132518 
13 1 0.0540439 -0.162599 -0.0958516 
14 1 -0.166818 -0.0615259 0.182646 
15 1 -0.136836 -0.196105 0.0825407 
16 1 0.0137364 0.203063 0.0763817 
17 1 0.163746 0.0595464 -0.179708 
18 1 -0.0107729 0.147484 0.129817 
19 1 -0.215107 -0.105214 0.0814649 
20 1 0.0124162 -0.0590016 -0.0429314 
21 1 0.0559323 -0.0215852 0.0454574 
22 1 0.215223 0.10305 -0.079387 
23 1 -0.0130987 0.0596821 0.0441529 
24 1 0.137136 0.194984 -0.0835106 
25 1 -0.151999 0.0764818 -0.0979413 
26 1 0.0836698 -0.120308 -0.161366 
27 1 -0.0139359 -0.203491 -0.0763002 
28 1 -0.0873158 -0.15184 0.182458 
29 1 0.106842 -0.097188 0.164671 
30 1 0.08447 0.150716 -0.182712 
31 1 -0.0821328 0.122025 0.160264 
32 1 0.140779 -0.0303741 0.13344 
33 1 -0.20317 0.015912 -0.0803401 
34 1 0.203486 -0.0155491 0.0809179 
35 1 -0.0575985 0.0198172 -0.0442094 
36 1 -0.0540469 0.163263 0.0956571 
37 1 0.151663 -0.0769337 0.100714 
38 1 -0.107272 0.0978281 -0.164676 
