LAMMPS (12 Dec 2018)
OMP_NUM_THREADS environment is not set. Defaulting to 1 thread. (src/comm.cpp:87)
  using 1 OpenMP thread(s) per MPI task
units          metal
dimension      3
atom_style     atomic
boundary       f  f  f

pair_style eam/fs

read_data      data.NiPt
  orthogonal box = (-25 -25 -25) to (25 25 25)
  1 by 1 by 1 MPI processor grid
  reading atoms ...
  38 atoms

pair_coeff * * NiPt.eam.fs Ni Pt

dump 1 all custom 1 dump.force id type fx fy fz
dump_modify 1 sort id

run 0
WARNING: No fixes defined, atoms won't move (src/verlet.cpp:55)
Neighbor list info ...
  update every 1 steps, delay 10 steps, check yes
  max neighbors/atom: 2000, page size: 100000
  master list distance cutoff = 8.0006
  ghost atom cutoff = 8.0006
  binsize = 4.0003, bins = 13 13 13
  1 neighbor lists, perpetual/occasional/extra = 1 0 0
  (1) pair eam/fs, perpetual
      attributes: half, newton on
      pair build: half/bin/atomonly/newton
      stencil: half/bin/3d/newton
      bin: standard
Per MPI rank memory allocation (min/avg/max) = 4.184 | 4.184 | 4.184 Mbytes
Step Temp E_pair E_mol TotEng Press 
       0            0   -177.82234            0   -177.82234   -116.29708 
Loop time of 2.02295e-06 on 1 procs for 0 steps with 38 atoms

197.7% CPU use with 1 MPI tasks x 1 OpenMP threads

MPI task timing breakdown:
Section |  min time  |  avg time  |  max time  |%varavg| %total
---------------------------------------------------------------
Pair    | 0          | 0          | 0          |   0.0 |  0.00
Neigh   | 0          | 0          | 0          |   0.0 |  0.00
Comm    | 0          | 0          | 0          |   0.0 |  0.00
Output  | 0          | 0          | 0          |   0.0 |  0.00
Modify  | 0          | 0          | 0          |   0.0 |  0.00
Other   |            | 2.023e-06  |            |       |100.00

Nlocal:    38 ave 38 max 38 min
Histogram: 1 0 0 0 0 0 0 0 0 0
Nghost:    0 ave 0 max 0 min
Histogram: 1 0 0 0 0 0 0 0 0 0
Neighs:    695 ave 695 max 695 min
Histogram: 1 0 0 0 0 0 0 0 0 0

Total # of neighbors = 695
Ave neighs/atom = 18.2895
Neighbor list builds = 0
Dangerous builds = 0
Total wall time: 0:00:00
